file 4383904 1672755496                                         
version 2
run Sched1-1-20230103-15:18:04-19008
attr configname Sched1
attr datetime 20230103-15:18:04
attr experiment Sched1
attr inifile omnetpp.ini
attr iterationvars $networkLoad=0.7
attr iterationvarsf networkLoad=0.7-
attr measurement $networkLoad=0.7
attr network RadioSch
attr processid 19008
attr repetition 1
attr replication #1
attr resultdir results
attr runnumber 1
attr seedset 1
itervar networkLoad 0.7
param *.usersCount 3
param *.nrOfChannels 10
param *.cycleDuration "1 ms"
param *.networkLoad 0.7
param **.user[*].generator.sendIaTime "0.2 ms"

vector 0 RadioSch.sink lifetime:vector ETV
attr interpolationmode none
attr title "lifetime of arrived jobs, vector"
attr unit s
0	719 4383185 37 628319 1 14400 144000 1.1157529e-005 12310.350829439 130211902.31082 626102968117.31
