version 2
run Sched1-3-20230331-13:40:32-14300
attr configname Sched1
attr datetime 20230331-13:40:32
attr experiment Sched1
attr inifile omnetpp.ini
attr iterationvars $networkLoad=0.9
attr iterationvarsf networkLoad=0.9-
attr measurement $networkLoad=0.9
attr network RadioSch
attr processid 14300
attr repetition 3
attr replication #3
attr resultdir results
attr runnumber 3
attr seedset 3
itervar networkLoad 0.9
param *.usersCount 3
param *.nrOfChannels 10
param *.cycleDuration "1 ms"
param *.networkLoad 0.9
param **.user[*].generator.sendIaTime "0.2 ms"

vector 0 RadioSch.flc "delay vector" ETV
vector 1 RadioSch.flc "result nescalat" ETV
vector 2 RadioSch.flc "res scalat" ETV
vector 3 RadioSch.flc "weight vector" ETV
vector 4 RadioSch.sink lifetime:vector ETV
attr interpolationmode none
attr title "lifetime of arrived jobs, vector"
attr unit s
0	9	0	124471784
0	64	1	0
0	117	2	5
0	168	3	4
0	215	4	6
0	274	5	7
0	331	6	5
0	382	7	4
0	439	8	4
0	494	9	6
0	543	10	5
0	583	11	6
0	631	12	5
0	671	13	4
0	730	14	3
0	781	15	4
0	814	16	5
0	863	17	8
0	898	18	6
0	947	19	6
0	1000	20	3
0	1042	21	5
0	1087	22	5
0	1131	23	0
0	1188	24	5
0	1221	25	5
0	1286	26	6
0	1343	27	6
0	1384	28	2
0	1455	29	4
0	1502	30	6
0	1558	31	4
0	1619	32	6
0	1662	33	6
0	1699	34	2
0	1756	35	5
0	1801	36	4
0	1850	37	5
0	1889	38	5
0	1934	39	5
0	1984	40	6
0	2029	41	6
0	2094	42	4
0	2134	43	4
0	2187	44	5
0	2238	45	4
0	2289	46	5
0	2340	47	5
0	2377	48	3
0	2416	49	8
0	2477	50	4
0	2530	51	6
0	2571	52	6
0	2630	53	6
0	2681	54	6
0	2726	55	7
0	2789	56	8
0	2838	57	9
0	2885	58	11
0	2924	59	9
0	2965	60	9
0	3030	61	5
0	3075	62	7
0	3120	63	8
0	3170	64	8
0	3225	65	3
0	3272	66	5
0	3316	67	4
0	3367	68	7
0	3430	69	4
0	3465	70	6
0	3524	71	7
0	3564	72	5
0	3615	73	6
0	3654	74	5
0	3717	75	5
0	3764	76	5
0	3811	77	4
0	3866	78	4
0	3917	79	4
0	3972	80	7
0	4009	81	6
0	4057	82	2
0	4110	83	5
0	4167	84	3
0	4220	85	4
0	4279	86	5
0	4324	87	8
0	4367	88	11
0	4414	89	9
0	4467	90	8
0	4522	91	6
0	4575	92	3
0	4624	93	3
0	4687	94	4
0	4744	95	3
0	4784	96	3
0	4830	97	4
0	4887	98	7
0	4940	99	4
0	4981	100	5
0	5026	101	4
0	5074	102	5
0	5125	103	4
0	5176	104	5
0	5237	105	4
0	5282	106	5
0	5334	107	7
0	5369	108	3
0	5418	109	8
0	5468	110	4
0	5509	111	5
0	5549	112	5
0	5602	113	4
0	5663	114	5
0	5706	115	5
0	5755	116	6
0	5808	117	5
0	5855	118	7
0	5900	119	4
0	5945	120	4
0	5986	121	0
0	6031	122	6
0	6085	123	3
0	6130	124	4
0	6183	125	4
0	6234	126	5
0	6291	127	7
0	6340	128	9
0	6387	129	5
0	6442	130	7
0	6491	131	6
0	6536	132	4
0	6584	133	5
0	6641	134	6
0	6688	135	3
0	6745	136	5
0	6791	137	6
0	6832	138	7
0	6879	139	5
0	6924	140	6
0	6973	141	6
0	7042	142	2
0	7099	143	6
0	7148	144	8
0	7199	145	6
0	7247	146	3
0	7306	147	4
0	7355	148	7
0	7399	149	3
0	7434	150	1
0	7479	151	6
0	7526	152	2
0	7579	153	7
0	7630	154	4
0	7683	155	5
0	7736	156	7
0	7781	157	6
0	7830	158	6
0	7877	159	0
0	7918	160	5
0	7958	161	4
0	8013	162	2
0	8059	163	2
0	8099	164	5
0	8147	165	1
0	8193	166	4
0	8248	167	3
0	8293	168	7
0	8344	169	5
0	8403	170	5
0	8445	171	6
0	8487	172	5
0	8535	173	4
0	8600	174	2
0	8657	175	5
0	8704	176	9
0	8755	177	4
0	8804	178	4
0	8848	179	4
0	8891	180	3
0	8944	181	5
0	9007	182	7
0	9058	183	9
0	9105	184	8
0	9148	185	7
0	9193	186	9
0	9240	187	3
0	9278	188	6
0	9331	189	5
0	9396	190	4
0	9449	191	7
0	9508	192	8
0	9553	193	9
0	9598	194	6
0	9655	195	7
0	9718	196	6
0	9789	197	5
0	9844	198	4
0	9899	199	8
0	9942	200	7
0	9985	201	6
0	10038	202	7
0	10091	203	4
0	10142	204	8
0	10187	205	6
0	10242	206	4
0	10311	207	7
0	10351	208	9
0	10396	209	8
0	10436	210	5
0	10495	211	3
0	10562	212	7
0	10605	213	8
0	10651	214	5
0	10702	215	4
0	10759	216	5
0	10807	217	4
0	10847	218	7
0	10906	219	8
0	10957	220	8
0	11014	221	4
0	11064	222	4
0	11117	223	6
0	11166	224	6
0	11215	225	4
0	11282	226	3
0	11323	227	4
0	11378	228	5
0	11437	229	3
0	11479	230	5
0	11532	231	6
0	11583	232	6
0	11638	233	4
0	11688	234	5
0	11741	235	6
0	11810	236	7
0	11855	237	8
0	11914	238	9
0	11962	239	6
0	12007	240	4
0	12060	241	5
0	12097	242	5
0	12143	243	4
0	12202	244	4
0	12257	245	5
0	12310	246	5
0	12351	247	6
0	12406	248	4
0	12451	249	7
0	12499	250	4
0	12538	251	6
0	12590	252	4
0	12630	253	9
0	12671	254	4
0	12734	255	5
0	12787	256	2
0	12844	257	4
0	12891	258	5
0	12938	259	5
0	12979	260	5
0	13041	261	5
0	13086	262	5
0	13135	263	5
0	13186	264	7
0	13235	265	6
0	13302	266	6
0	13363	267	7
0	13410	268	8
0	13463	269	9
0	13503	270	5
0	13551	271	3
0	13603	272	4
0	13654	273	3
0	13698	274	1
0	13743	275	4
0	13786	276	3
0	13841	277	7
0	13904	278	6
0	13945	279	3
0	13998	280	6
0	14055	281	5
0	14108	282	6
0	14167	283	4
0	14214	284	4
0	14261	285	7
0	14302	286	7
0	14361	287	4
0	14408	288	5
0	14463	289	8
0	14527	290	7
0	14584	291	7
0	14633	292	5
0	14686	293	5
0	14747	294	6
0	14790	295	6
0	14836	296	7
0	14877	297	4
0	14922	298	4
0	14979	299	3
0	15022	300	5
0	15079	301	8
0	15128	302	8
0	15168	303	6
0	15209	304	5
0	15252	305	7
0	15307	306	5
0	15362	307	3
0	15413	308	4
0	15474	309	4
0	15511	310	7
0	15562	311	4
0	15611	312	3
0	15654	313	8
0	15702	314	5
0	15747	315	6
0	15788	316	5
0	15849	317	4
0	15901	318	6
0	15941	319	7
0	15991	320	0
0	16042	321	8
0	16101	322	5
0	16155	323	5
0	16210	324	7
0	16259	325	4
0	16312	326	6
0	16363	327	5
0	16406	328	8
0	16461	329	8
0	16521	330	9
0	16573	331	3
0	16616	332	3
0	16657	333	4
0	16701	334	4
0	16760	335	5
0	16813	336	5
0	16856	337	4
0	16906	338	5
0	16967	339	5
0	17012	340	4
0	17061	341	6
0	17107	342	6
0	17156	343	7
0	17201	344	6
0	17252	345	5
0	17301	346	3
0	17342	347	3
0	17391	348	4
0	17450	349	2
0	17499	350	5
0	17550	351	8
0	17604	352	9
0	17639	353	4
0	17680	354	1
0	17743	355	7
0	17783	356	5
0	17822	357	5
0	17864	358	1
0	17923	359	4
0	17975	360	3
0	18032	361	4
0	18080	362	3
0	18126	363	5
0	18173	364	3
0	18223	365	3
0	18266	366	4
0	18309	367	4
0	18358	368	5
0	18403	369	4
0	18457	370	4
0	18508	371	5
0	18547	372	4
0	18588	373	6
0	18637	374	5
0	18682	375	6
0	18717	376	5
0	18759	377	3
0	18813	378	7
0	18858	379	5
0	18915	380	6
0	18968	381	3
0	19025	382	4
0	19076	383	5
0	19125	384	7
0	19176	385	5
0	19218	386	4
0	19265	387	3
0	19316	388	7
0	19371	389	7
0	19424	390	2
0	19469	391	4
0	19534	392	3
0	19583	393	8
0	19622	394	9
0	19670	395	9
0	19721	396	5
0	19756	397	3
0	19795	398	3
0	19846	399	4
0	19906	400	5
0	19945	401	5
0	19989	402	6
0	20035	403	5
0	20078	404	4
0	20135	405	4
0	20182	406	6
0	20230	407	7
0	20283	408	2
0	20334	409	3
0	20385	410	6
0	20426	411	5
0	20475	412	6
0	20517	413	5
0	20578	414	5
0	20630	415	5
0	20691	416	7
0	20740	417	5
0	20785	418	10
0	20826	419	13
0	20873	420	14
0	20908	421	8
0	20953	422	6
0	20991	423	2
0	21048	424	4
0	21083	425	3
0	21140	426	7
0	21195	427	4
0	21236	428	6
0	21277	429	5
0	21320	430	1
0	21375	431	5
0	21418	432	6
0	21469	433	4
0	21526	434	3
0	21567	435	5
0	21620	436	6
0	21667	437	4
0	21702	438	3
0	21745	439	5
0	21798	440	6
0	21842	441	5
0	21901	442	4
0	21943	443	2
0	22002	444	3
0	22051	445	5
0	22104	446	5
0	22149	447	5
0	22189	448	1
0	22242	449	6
0	22292	450	6
0	22341	451	8
0	22392	452	2
0	22445	453	7
0	22499	454	4
0	22560	455	5
0	22615	456	4
0	22668	457	5
0	22709	458	6
0	22778	459	5
0	22809	460	7
0	22851	461	11
0	22930	462	6
0	22979	463	5
0	23016	464	8
0	23069	465	9
0	23118	466	5
0	23179	467	5
0	23222	468	5
0	23265	469	5
0	23322	470	4
0	23377	471	5
0	23434	472	3
0	23479	473	2
0	23525	474	5
0	23580	475	3
0	23633	476	6
0	23679	477	8
0	23732	478	9
0	23774	479	5
0	23821	480	4
0	23860	481	4
0	23919	482	5
0	23970	483	5
0	24023	484	5
0	24078	485	7
0	24133	486	5
0	24183	487	3
0	24224	488	2
0	24269	489	4
0	24310	490	5
0	24348	491	6
0	24403	492	6
0	24452	493	4
0	24515	494	4
0	24568	495	6
0	24611	496	6
0	24660	497	3
0	24705	498	6
0	24748	499	6
0	24792	500	4
0	24843	501	4
0	24900	502	6
0	24960	503	5
0	24998	504	8
0	25047	505	5
0	25104	506	6
0	25153	507	5
0	25196	508	3
0	25245	509	5
0	25298	510	4
0	25348	511	3
0	25392	512	3
0	25433	513	6
0	25482	514	4
0	25531	515	6
0	25578	516	4
0	25621	517	6
0	25684	518	5
0	25741	519	7
0	25800	520	9
0	25835	521	7
0	25894	522	6
0	25951	523	3
0	25990	524	5
0	26041	525	7
0	26090	526	5
0	26143	527	3
0	26185	528	7
0	26218	529	5
0	26275	530	4
0	26330	531	6
0	26377	532	5
0	26424	533	8
0	26479	534	2
0	26530	535	3
0	26580	536	6
0	26627	537	5
0	26666	538	5
0	26723	539	6
0	26782	540	5
0	26839	541	7
0	26886	542	9
0	26923	543	6
0	26963	544	7
0	27014	545	1
0	27063	546	6
0	27132	547	7
0	27191	548	6
0	27237	549	7
0	27277	550	8
0	27326	551	4
0	27381	552	3
0	27434	553	6
0	27482	554	6
0	27529	555	5
0	27584	556	4
0	27623	557	4
0	27665	558	6
0	27728	559	4
0	27781	560	6
0	27820	561	9
0	27861	562	8
0	27914	563	4
0	27966	564	7
0	28011	565	5
0	28056	566	5
0	28103	567	3
0	28150	568	4
0	28183	569	6
0	28234	570	6
0	28287	571	5
0	28335	572	4
0	28379	573	3
0	28420	574	2
0	28467	575	6
0	28506	576	4
0	28569	577	5
0	28616	578	6
0	28669	579	4
0	28726	580	6
0	28769	581	10
0	28822	582	14
0	28879	583	13
0	28916	584	10
0	28967	585	13
0	29022	586	14
0	29059	587	12
0	29108	588	11
0	29164	589	3
0	29227	590	4
0	29284	591	6
0	29331	592	9
0	29380	593	8
0	29422	594	7
0	29463	595	4
0	29506	596	4
0	29551	597	4
0	29606	598	3
0	29647	599	4
0	29702	600	3
0	29755	601	4
0	29808	602	4
0	29857	603	4
0	29918	604	8
0	29959	605	6
0	30011	606	6
0	30050	607	6
0	30095	608	7
0	30150	609	4
0	30199	610	5
0	30238	611	3
0	30275	612	8
0	30326	613	4
0	30373	614	5
0	30432	615	7
0	30497	616	3
0	30540	617	7
0	30587	618	8
0	30636	619	5
0	30687	620	7
0	30744	621	9
0	30791	622	6
0	30848	623	5
0	30903	624	4
0	30950	625	5
0	31005	626	3
0	31055	627	5
0	31112	628	6
0	31170	629	4
0	31217	630	5
0	31282	631	6
0	31341	632	4
0	31380	633	6
0	31432	634	7
0	31483	635	5
0	31530	636	4
0	31577	637	4
0	31640	638	5
0	31684	639	5
0	31741	640	6
0	31787	641	5
0	31842	642	3
0	31897	643	6
0	31936	644	2
0	31993	645	5
0	32058	646	4
0	32105	647	7
0	32150	648	4
0	32195	649	5
0	32240	650	3
0	32283	651	6
0	32342	652	3
0	32399	653	5
0	32454	654	5
0	32517	655	6
0	32574	656	4
0	32619	657	5
0	32671	658	6
0	32726	659	5
0	32773	660	7
0	32819	661	10
0	32864	662	8
0	32917	663	4
0	32964	664	4
0	33007	665	5
0	33064	666	6
0	33119	667	6
0	33172	668	4
0	33219	669	1
0	33257	670	3
0	33314	671	5
0	33368	672	6
0	33410	673	7
0	33455	674	7
0	33498	675	4
0	33549	676	2
0	33600	677	3
0	33655	678	6
0	33697	679	4
0	33749	680	3
0	33795	681	4
0	33840	682	3
0	33899	683	6
0	33949	684	2
0	33998	685	6
0	34043	686	5
0	34101	687	6
0	34148	688	5
0	34190	689	5
0	34255	690	4
0	34316	691	6
0	34359	692	9
0	34408	693	7
0	34451	694	3
0	34504	695	6
0	34553	696	5
0	34604	697	4
0	34652	698	4
0	34705	699	0
0	34758	700	4
0	34809	701	5
0	34870	702	6
0	34921	703	3
0	34985	704	4
0	35040	705	4
0	35083	706	6
0	35148	707	5
0	35193	708	5
0	35244	709	4
0	35299	710	7
0	35340	711	6
0	35395	712	7
0	35440	713	4
0	35487	714	7
0	35534	715	6
0	35593	716	2
0	35646	717	6
0	35693	718	6
0	35738	719	2
0	35784	720	5
0	35822	721	4
0	35885	722	3
0	35954	723	4
0	36011	724	5
0	36056	725	5
0	36120	726	6
0	36175	727	5
0	36240	728	4
0	36284	729	6
0	36327	730	4
0	36376	731	2
0	36435	732	7
0	36487	733	4
0	36531	734	5
0	36584	735	0
0	36633	736	5
0	36672	737	7
0	36719	738	9
0	36782	739	6
0	36832	740	4
0	36877	741	6
0	36930	742	3
0	36975	743	7
0	37015	744	8
0	37068	745	11
0	37115	746	5
0	37159	747	4
0	37202	748	5
0	37253	749	3
0	37308	750	5
0	37355	751	3
0	37415	752	5
0	37465	753	5
0	37506	754	0
0	37559	755	4
0	37604	756	6
0	37653	757	5
0	37701	758	5
0	37758	759	5
0	37801	760	3
0	37849	761	3
0	37892	762	6
0	37939	763	3
0	37988	764	4
0	38035	765	4
0	38090	766	4
0	38143	767	7
0	38206	768	9
0	38245	769	10
0	38298	770	11
0	38355	771	4
0	38394	772	4
0	38451	773	7
0	38498	774	6
0	38542	775	5
0	38599	776	8
0	38634	777	5
0	38683	778	5
0	38730	779	3
0	38770	780	2
0	38817	781	4
0	38867	782	3
0	38924	783	3
0	38967	784	6
0	39018	785	4
0	39071	786	6
0	39120	787	4
0	39168	788	5
0	39218	789	7
0	39268	790	4
0	39319	791	7
0	39364	792	6
0	39409	793	5
0	39474	794	4
0	39529	795	4
0	39584	796	8
0	39641	797	8
0	39695	798	6
0	39740	799	4
0	39787	800	3
0	39838	801	4
0	39883	802	3
0	39932	803	6
0	39985	804	5
0	40033	805	5
0	40076	806	8
0	40121	807	4
0	40166	808	3
0	40209	809	4
0	40268	810	4
0	40321	811	5
0	40376	812	4
0	40423	813	6
0	40472	814	7
0	40518	815	8
0	40571	816	6
0	40624	817	3
0	40667	818	6
0	40722	819	9
0	40765	820	4
0	40814	821	5
0	40857	822	6
0	40891	823	6
0	40950	824	8
0	40987	825	4
0	41040	826	7
0	41084	827	6
0	41127	828	4
0	41162	829	5
0	41204	830	6
0	41241	831	4
0	41292	832	9
0	41337	833	4
0	41384	834	5
0	41433	835	1
0	41492	836	4
0	41547	837	4
0	41591	838	2
0	41648	839	6
0	41708	840	5
0	41752	841	2
0	41825	842	5
0	41900	843	6
0	41955	844	8
0	42012	845	11
0	42065	846	16
0	42114	847	18
0	42169	848	17
0	42216	849	12
0	42265	850	9
0	42312	851	4
0	42368	852	6
0	42421	853	3
0	42454	854	5
0	42519	855	9
0	42568	856	4
0	42627	857	5
0	42676	858	6
0	42723	859	5
0	42772	860	4
0	42825	861	6
0	42870	862	5
0	42918	863	4
0	42971	864	5
0	43016	865	6
0	43059	866	7
0	43110	867	3
0	43151	868	6
0	43206	869	3
0	43267	870	3
0	43318	871	7
0	43365	872	11
0	43412	873	10
0	43453	874	7
0	43498	875	5
0	43561	876	6
0	43622	877	6
0	43685	878	11
0	43732	879	9
0	43771	880	10
0	43822	881	7
0	43868	882	5
0	43935	883	4
0	43992	884	6
0	44031	885	10
0	44080	886	10
0	44129	887	8
0	44174	888	7
0	44215	889	10
0	44259	890	8
0	44301	891	6
0	44352	892	4
0	44409	893	8
0	44454	894	6
0	44488	895	6
0	44535	896	2
0	44575	897	4
0	44623	898	4
0	44666	899	6
0	44710	900	6
0	44761	901	5
0	44812	902	4
0	44861	903	6
0	44895	904	4
0	44938	905	7
0	45005	906	3
0	45053	907	6
0	45090	908	4
0	45132	909	3
0	45197	910	5
0	45242	911	6
0	45301	912	10
0	45354	913	9
0	45399	914	14
0	45448	915	10
0	45503	916	6
0	45550	917	4
0	45599	918	4
0	45654	919	5
0	45711	920	5
0	45768	921	5
0	45821	922	7
0	45876	923	8
0	45919	924	8
0	45984	925	11
0	46025	926	8
0	46074	927	7
0	46128	928	5
0	46179	929	6
0	46216	930	6
0	46263	931	7
0	46299	932	5
0	46342	933	9
0	46403	934	1
0	46461	935	4
0	46506	936	6
0	46561	937	4
0	46614	938	7
0	46673	939	5
0	46736	940	8
0	46781	941	8
0	46842	942	9
0	46884	943	3
0	46965	944	6
0	46998	945	5
0	47043	946	7
0	47080	947	1
0	47130	948	7
0	47171	949	7
0	47215	950	5
0	47260	951	6
0	47303	952	7
0	47372	953	10
0	47421	954	5
0	47466	955	4
0	47521	956	1
0	47568	957	3
0	47619	958	5
0	47684	959	5
0	47727	960	4
0	47764	961	7
0	47811	962	6
0	47868	963	6
0	47919	964	6
0	47966	965	8
0	48017	966	6
0	48077	967	7
0	48117	968	7
0	48176	969	3
0	48229	970	5
0	48272	971	5
0	48318	972	6
0	48364	973	3
0	48428	974	8
0	48491	975	6
0	48544	976	4
0	48613	977	4
0	48668	978	5
0	48717	979	7
0	48760	980	6
0	48825	981	6
0	48873	982	1
0	48916	983	3
0	48969	984	3
0	49016	985	4
0	49063	986	9
0	49110	987	4
0	49155	988	7
0	49206	989	4
0	49261	990	4
0	49319	991	4
0	49357	992	5
0	49398	993	3
0	49459	994	5
0	49505	995	3
0	49560	996	0
0	49595	997	6
0	49637	998	4
0	49688	999	4
0	49732	1000	5
1	9	0	49
1	64	1	1
1	117	2	1
1	168	3	1
1	215	4	6
1	274	5	16
1	331	6	1
1	382	7	1
1	439	8	1
1	494	9	6
1	543	10	1
1	583	11	6
1	631	12	1
1	671	13	1
1	730	14	1
1	781	15	1
1	814	16	1
1	863	17	16
1	898	18	6
1	947	19	6
1	1000	20	1
1	1042	21	1
1	1087	22	1
1	1131	23	1
1	1188	24	1
1	1221	25	1
1	1286	26	6
1	1343	27	6
1	1384	28	1
1	1455	29	1
1	1502	30	6
1	1558	31	1
1	1619	32	6
1	1662	33	6
1	1699	34	1
1	1756	35	1
1	1801	36	1
1	1850	37	1
1	1889	38	1
1	1934	39	1
1	1984	40	6
1	2029	41	6
1	2094	42	1
1	2134	43	1
1	2187	44	1
1	2238	45	1
1	2289	46	1
1	2340	47	1
1	2377	48	1
1	2416	49	16
1	2477	50	1
1	2530	51	6
1	2571	52	6
1	2630	53	6
1	2681	54	6
1	2726	55	16
1	2789	56	16
1	2838	57	16
1	2885	58	32
1	2924	59	16
1	2965	60	16
1	3030	61	1
1	3075	62	16
1	3120	63	16
1	3170	64	16
1	3225	65	1
1	3272	66	1
1	3316	67	1
1	3367	68	16
1	3430	69	1
1	3465	70	6
1	3524	71	16
1	3564	72	1
1	3615	73	6
1	3654	74	1
1	3717	75	1
1	3764	76	1
1	3811	77	1
1	3866	78	1
1	3917	79	1
1	3972	80	16
1	4009	81	6
1	4057	82	1
1	4110	83	1
1	4167	84	1
1	4220	85	1
1	4279	86	1
1	4324	87	16
1	4367	88	32
1	4414	89	16
1	4467	90	16
1	4522	91	6
1	4575	92	1
1	4624	93	1
1	4687	94	1
1	4744	95	1
1	4784	96	1
1	4830	97	1
1	4887	98	16
1	4940	99	1
1	4981	100	1
1	5026	101	1
1	5074	102	1
1	5125	103	1
1	5176	104	1
1	5237	105	1
1	5282	106	1
1	5334	107	16
1	5369	108	1
1	5418	109	16
1	5468	110	1
1	5509	111	1
1	5549	112	1
1	5602	113	1
1	5663	114	1
1	5706	115	1
1	5755	116	6
1	5808	117	1
1	5855	118	16
1	5900	119	1
1	5945	120	1
1	5986	121	1
1	6031	122	6
1	6085	123	1
1	6130	124	1
1	6183	125	1
1	6234	126	1
1	6291	127	16
1	6340	128	16
1	6387	129	1
1	6442	130	16
1	6491	131	6
1	6536	132	1
1	6584	133	1
1	6641	134	6
1	6688	135	1
1	6745	136	1
1	6791	137	6
1	6832	138	16
1	6879	139	1
1	6924	140	6
1	6973	141	6
1	7042	142	1
1	7099	143	6
1	7148	144	16
1	7199	145	6
1	7247	146	1
1	7306	147	1
1	7355	148	16
1	7399	149	1
1	7434	150	1
1	7479	151	6
1	7526	152	1
1	7579	153	16
1	7630	154	1
1	7683	155	1
1	7736	156	16
1	7781	157	6
1	7830	158	6
1	7877	159	1
1	7918	160	1
1	7958	161	1
1	8013	162	1
1	8059	163	1
1	8099	164	1
1	8147	165	1
1	8193	166	1
1	8248	167	1
1	8293	168	16
1	8344	169	1
1	8403	170	1
1	8445	171	6
1	8487	172	1
1	8535	173	1
1	8600	174	1
1	8657	175	1
1	8704	176	16
1	8755	177	1
1	8804	178	1
1	8848	179	1
1	8891	180	1
1	8944	181	1
1	9007	182	16
1	9058	183	16
1	9105	184	16
1	9148	185	16
1	9193	186	16
1	9240	187	1
1	9278	188	6
1	9331	189	1
1	9396	190	1
1	9449	191	16
1	9508	192	16
1	9553	193	16
1	9598	194	6
1	9655	195	16
1	9718	196	6
1	9789	197	1
1	9844	198	1
1	9899	199	16
1	9942	200	16
1	9985	201	6
1	10038	202	16
1	10091	203	1
1	10142	204	16
1	10187	205	6
1	10242	206	1
1	10311	207	16
1	10351	208	16
1	10396	209	16
1	10436	210	1
1	10495	211	1
1	10562	212	16
1	10605	213	16
1	10651	214	1
1	10702	215	1
1	10759	216	1
1	10807	217	1
1	10847	218	16
1	10906	219	16
1	10957	220	16
1	11014	221	1
1	11064	222	1
1	11117	223	6
1	11166	224	6
1	11215	225	1
1	11282	226	1
1	11323	227	1
1	11378	228	1
1	11437	229	1
1	11479	230	1
1	11532	231	6
1	11583	232	6
1	11638	233	1
1	11688	234	1
1	11741	235	6
1	11810	236	16
1	11855	237	16
1	11914	238	16
1	11962	239	6
1	12007	240	1
1	12060	241	1
1	12097	242	1
1	12143	243	1
1	12202	244	1
1	12257	245	1
1	12310	246	1
1	12351	247	6
1	12406	248	1
1	12451	249	16
1	12499	250	1
1	12538	251	6
1	12590	252	1
1	12630	253	16
1	12671	254	1
1	12734	255	1
1	12787	256	1
1	12844	257	1
1	12891	258	1
1	12938	259	1
1	12979	260	1
1	13041	261	1
1	13086	262	1
1	13135	263	1
1	13186	264	16
1	13235	265	6
1	13302	266	6
1	13363	267	16
1	13410	268	16
1	13463	269	16
1	13503	270	1
1	13551	271	1
1	13603	272	1
1	13654	273	1
1	13698	274	1
1	13743	275	1
1	13786	276	1
1	13841	277	16
1	13904	278	6
1	13945	279	1
1	13998	280	6
1	14055	281	1
1	14108	282	6
1	14167	283	1
1	14214	284	1
1	14261	285	16
1	14302	286	16
1	14361	287	1
1	14408	288	1
1	14463	289	16
1	14527	290	16
1	14584	291	16
1	14633	292	1
1	14686	293	1
1	14747	294	6
1	14790	295	6
1	14836	296	16
1	14877	297	1
1	14922	298	1
1	14979	299	1
1	15022	300	1
1	15079	301	16
1	15128	302	16
1	15168	303	6
1	15209	304	1
1	15252	305	16
1	15307	306	1
1	15362	307	1
1	15413	308	1
1	15474	309	1
1	15511	310	16
1	15562	311	1
1	15611	312	1
1	15654	313	16
1	15702	314	1
1	15747	315	6
1	15788	316	1
1	15849	317	1
1	15901	318	6
1	15941	319	16
1	15991	320	1
1	16042	321	16
1	16101	322	1
1	16155	323	1
1	16210	324	16
1	16259	325	1
1	16312	326	6
1	16363	327	1
1	16406	328	16
1	16461	329	16
1	16521	330	16
1	16573	331	1
1	16616	332	1
1	16657	333	1
1	16701	334	1
1	16760	335	1
1	16813	336	1
1	16856	337	1
1	16906	338	1
1	16967	339	1
1	17012	340	1
1	17061	341	6
1	17107	342	6
1	17156	343	16
1	17201	344	6
1	17252	345	1
1	17301	346	1
1	17342	347	1
1	17391	348	1
1	17450	349	1
1	17499	350	1
1	17550	351	16
1	17604	352	16
1	17639	353	1
1	17680	354	1
1	17743	355	16
1	17783	356	1
1	17822	357	1
1	17864	358	1
1	17923	359	1
1	17975	360	1
1	18032	361	1
1	18080	362	1
1	18126	363	1
1	18173	364	1
1	18223	365	1
1	18266	366	1
1	18309	367	1
1	18358	368	1
1	18403	369	1
1	18457	370	1
1	18508	371	1
1	18547	372	1
1	18588	373	6
1	18637	374	1
1	18682	375	6
1	18717	376	1
1	18759	377	1
1	18813	378	16
1	18858	379	1
1	18915	380	6
1	18968	381	1
1	19025	382	1
1	19076	383	1
1	19125	384	16
1	19176	385	1
1	19218	386	1
1	19265	387	1
1	19316	388	16
1	19371	389	16
1	19424	390	1
1	19469	391	1
1	19534	392	1
1	19583	393	16
1	19622	394	16
1	19670	395	16
1	19721	396	1
1	19756	397	1
1	19795	398	1
1	19846	399	1
1	19906	400	1
1	19945	401	1
1	19989	402	6
1	20035	403	1
1	20078	404	1
1	20135	405	1
1	20182	406	6
1	20230	407	16
1	20283	408	1
1	20334	409	1
1	20385	410	6
1	20426	411	1
1	20475	412	6
1	20517	413	1
1	20578	414	1
1	20630	415	1
1	20691	416	16
1	20740	417	1
1	20785	418	32
1	20826	419	32
1	20873	420	32
1	20908	421	16
1	20953	422	6
1	20991	423	1
1	21048	424	1
1	21083	425	1
1	21140	426	16
1	21195	427	1
1	21236	428	6
1	21277	429	1
1	21320	430	1
1	21375	431	1
1	21418	432	6
1	21469	433	1
1	21526	434	1
1	21567	435	1
1	21620	436	6
1	21667	437	1
1	21702	438	1
1	21745	439	1
1	21798	440	6
1	21842	441	1
1	21901	442	1
1	21943	443	1
1	22002	444	1
1	22051	445	1
1	22104	446	1
1	22149	447	1
1	22189	448	1
1	22242	449	6
1	22292	450	6
1	22341	451	16
1	22392	452	1
1	22445	453	16
1	22499	454	1
1	22560	455	1
1	22615	456	1
1	22668	457	1
1	22709	458	6
1	22778	459	1
1	22809	460	16
1	22851	461	32
1	22930	462	6
1	22979	463	1
1	23016	464	16
1	23069	465	16
1	23118	466	1
1	23179	467	1
1	23222	468	1
1	23265	469	1
1	23322	470	1
1	23377	471	1
1	23434	472	1
1	23479	473	1
1	23525	474	1
1	23580	475	1
1	23633	476	6
1	23679	477	16
1	23732	478	16
1	23774	479	1
1	23821	480	1
1	23860	481	1
1	23919	482	1
1	23970	483	1
1	24023	484	1
1	24078	485	16
1	24133	486	1
1	24183	487	1
1	24224	488	1
1	24269	489	1
1	24310	490	1
1	24348	491	6
1	24403	492	6
1	24452	493	1
1	24515	494	1
1	24568	495	6
1	24611	496	6
1	24660	497	1
1	24705	498	6
1	24748	499	6
1	24792	500	1
1	24843	501	1
1	24900	502	6
1	24960	503	1
1	24998	504	16
1	25047	505	1
1	25104	506	6
1	25153	507	1
1	25196	508	1
1	25245	509	1
1	25298	510	1
1	25348	511	1
1	25392	512	1
1	25433	513	6
1	25482	514	1
1	25531	515	6
1	25578	516	1
1	25621	517	6
1	25684	518	1
1	25741	519	16
1	25800	520	16
1	25835	521	16
1	25894	522	6
1	25951	523	1
1	25990	524	1
1	26041	525	16
1	26090	526	1
1	26143	527	1
1	26185	528	16
1	26218	529	1
1	26275	530	1
1	26330	531	6
1	26377	532	1
1	26424	533	16
1	26479	534	1
1	26530	535	1
1	26580	536	6
1	26627	537	1
1	26666	538	1
1	26723	539	6
1	26782	540	1
1	26839	541	16
1	26886	542	16
1	26923	543	6
1	26963	544	16
1	27014	545	1
1	27063	546	6
1	27132	547	16
1	27191	548	6
1	27237	549	16
1	27277	550	16
1	27326	551	1
1	27381	552	1
1	27434	553	6
1	27482	554	6
1	27529	555	1
1	27584	556	1
1	27623	557	1
1	27665	558	6
1	27728	559	1
1	27781	560	6
1	27820	561	16
1	27861	562	16
1	27914	563	1
1	27966	564	16
1	28011	565	1
1	28056	566	1
1	28103	567	1
1	28150	568	1
1	28183	569	6
1	28234	570	6
1	28287	571	1
1	28335	572	1
1	28379	573	1
1	28420	574	1
1	28467	575	6
1	28506	576	1
1	28569	577	1
1	28616	578	6
1	28669	579	1
1	28726	580	6
1	28769	581	32
1	28822	582	32
1	28879	583	32
1	28916	584	32
1	28967	585	32
1	29022	586	32
1	29059	587	32
1	29108	588	32
1	29164	589	1
1	29227	590	1
1	29284	591	6
1	29331	592	16
1	29380	593	16
1	29422	594	16
1	29463	595	1
1	29506	596	1
1	29551	597	1
1	29606	598	1
1	29647	599	1
1	29702	600	1
1	29755	601	1
1	29808	602	1
1	29857	603	1
1	29918	604	16
1	29959	605	6
1	30011	606	6
1	30050	607	6
1	30095	608	16
1	30150	609	1
1	30199	610	1
1	30238	611	1
1	30275	612	16
1	30326	613	1
1	30373	614	1
1	30432	615	16
1	30497	616	1
1	30540	617	16
1	30587	618	16
1	30636	619	1
1	30687	620	16
1	30744	621	16
1	30791	622	6
1	30848	623	1
1	30903	624	1
1	30950	625	1
1	31005	626	1
1	31055	627	1
1	31112	628	6
1	31170	629	1
1	31217	630	1
1	31282	631	6
1	31341	632	1
1	31380	633	6
1	31432	634	16
1	31483	635	1
1	31530	636	1
1	31577	637	1
1	31640	638	1
1	31684	639	1
1	31741	640	6
1	31787	641	1
1	31842	642	1
1	31897	643	6
1	31936	644	1
1	31993	645	1
1	32058	646	1
1	32105	647	16
1	32150	648	1
1	32195	649	1
1	32240	650	1
1	32283	651	6
1	32342	652	1
1	32399	653	1
1	32454	654	1
1	32517	655	6
1	32574	656	1
1	32619	657	1
1	32671	658	6
1	32726	659	1
1	32773	660	16
1	32819	661	32
1	32864	662	16
1	32917	663	1
1	32964	664	1
1	33007	665	1
1	33064	666	6
1	33119	667	6
1	33172	668	1
1	33219	669	1
1	33257	670	1
1	33314	671	1
1	33368	672	6
1	33410	673	16
1	33455	674	16
1	33498	675	1
1	33549	676	1
1	33600	677	1
1	33655	678	6
1	33697	679	1
1	33749	680	1
1	33795	681	1
1	33840	682	1
1	33899	683	6
1	33949	684	1
1	33998	685	6
1	34043	686	1
1	34101	687	6
1	34148	688	1
1	34190	689	1
1	34255	690	1
1	34316	691	6
1	34359	692	16
1	34408	693	16
1	34451	694	1
1	34504	695	6
1	34553	696	1
1	34604	697	1
1	34652	698	1
1	34705	699	1
1	34758	700	1
1	34809	701	1
1	34870	702	6
1	34921	703	1
1	34985	704	1
1	35040	705	1
1	35083	706	6
1	35148	707	1
1	35193	708	1
1	35244	709	1
1	35299	710	16
1	35340	711	6
1	35395	712	16
1	35440	713	1
1	35487	714	16
1	35534	715	6
1	35593	716	1
1	35646	717	6
1	35693	718	6
1	35738	719	1
1	35784	720	1
1	35822	721	1
1	35885	722	1
1	35954	723	1
1	36011	724	1
1	36056	725	1
1	36120	726	6
1	36175	727	1
1	36240	728	1
1	36284	729	6
1	36327	730	1
1	36376	731	1
1	36435	732	16
1	36487	733	1
1	36531	734	1
1	36584	735	1
1	36633	736	1
1	36672	737	16
1	36719	738	16
1	36782	739	6
1	36832	740	1
1	36877	741	6
1	36930	742	1
1	36975	743	16
1	37015	744	16
1	37068	745	32
1	37115	746	1
1	37159	747	1
1	37202	748	1
1	37253	749	1
1	37308	750	1
1	37355	751	1
1	37415	752	1
1	37465	753	1
1	37506	754	1
1	37559	755	1
1	37604	756	6
1	37653	757	1
1	37701	758	1
1	37758	759	1
1	37801	760	1
1	37849	761	1
1	37892	762	6
1	37939	763	1
1	37988	764	1
1	38035	765	1
1	38090	766	1
1	38143	767	16
1	38206	768	16
1	38245	769	32
1	38298	770	32
1	38355	771	1
1	38394	772	1
1	38451	773	16
1	38498	774	6
1	38542	775	1
1	38599	776	16
1	38634	777	1
1	38683	778	1
1	38730	779	1
1	38770	780	1
1	38817	781	1
1	38867	782	1
1	38924	783	1
1	38967	784	6
1	39018	785	1
1	39071	786	6
1	39120	787	1
1	39168	788	1
1	39218	789	16
1	39268	790	1
1	39319	791	16
1	39364	792	6
1	39409	793	1
1	39474	794	1
1	39529	795	1
1	39584	796	16
1	39641	797	16
1	39695	798	6
1	39740	799	1
1	39787	800	1
1	39838	801	1
1	39883	802	1
1	39932	803	6
1	39985	804	1
1	40033	805	1
1	40076	806	16
1	40121	807	1
1	40166	808	1
1	40209	809	1
1	40268	810	1
1	40321	811	1
1	40376	812	1
1	40423	813	6
1	40472	814	16
1	40518	815	16
1	40571	816	6
1	40624	817	1
1	40667	818	6
1	40722	819	16
1	40765	820	1
1	40814	821	1
1	40857	822	6
1	40891	823	6
1	40950	824	16
1	40987	825	1
1	41040	826	16
1	41084	827	6
1	41127	828	1
1	41162	829	1
1	41204	830	6
1	41241	831	1
1	41292	832	16
1	41337	833	1
1	41384	834	1
1	41433	835	1
1	41492	836	1
1	41547	837	1
1	41591	838	1
1	41648	839	6
1	41708	840	1
1	41752	841	1
1	41825	842	1
1	41900	843	6
1	41955	844	16
1	42012	845	32
1	42065	846	34
1	42114	847	49
1	42169	848	39
1	42216	849	32
1	42265	850	16
1	42312	851	1
1	42368	852	6
1	42421	853	1
1	42454	854	1
1	42519	855	16
1	42568	856	1
1	42627	857	1
1	42676	858	6
1	42723	859	1
1	42772	860	1
1	42825	861	6
1	42870	862	1
1	42918	863	1
1	42971	864	1
1	43016	865	6
1	43059	866	16
1	43110	867	1
1	43151	868	6
1	43206	869	1
1	43267	870	1
1	43318	871	16
1	43365	872	32
1	43412	873	32
1	43453	874	16
1	43498	875	1
1	43561	876	6
1	43622	877	6
1	43685	878	32
1	43732	879	16
1	43771	880	32
1	43822	881	16
1	43868	882	1
1	43935	883	1
1	43992	884	6
1	44031	885	32
1	44080	886	32
1	44129	887	16
1	44174	888	16
1	44215	889	32
1	44259	890	16
1	44301	891	6
1	44352	892	1
1	44409	893	16
1	44454	894	6
1	44488	895	6
1	44535	896	1
1	44575	897	1
1	44623	898	1
1	44666	899	6
1	44710	900	6
1	44761	901	1
1	44812	902	1
1	44861	903	6
1	44895	904	1
1	44938	905	16
1	45005	906	1
1	45053	907	6
1	45090	908	1
1	45132	909	1
1	45197	910	1
1	45242	911	6
1	45301	912	32
1	45354	913	16
1	45399	914	32
1	45448	915	32
1	45503	916	6
1	45550	917	1
1	45599	918	1
1	45654	919	1
1	45711	920	1
1	45768	921	1
1	45821	922	16
1	45876	923	16
1	45919	924	16
1	45984	925	32
1	46025	926	16
1	46074	927	16
1	46128	928	1
1	46179	929	6
1	46216	930	6
1	46263	931	16
1	46299	932	1
1	46342	933	16
1	46403	934	1
1	46461	935	1
1	46506	936	6
1	46561	937	1
1	46614	938	16
1	46673	939	1
1	46736	940	16
1	46781	941	16
1	46842	942	16
1	46884	943	1
1	46965	944	6
1	46998	945	1
1	47043	946	16
1	47080	947	1
1	47130	948	16
1	47171	949	16
1	47215	950	1
1	47260	951	6
1	47303	952	16
1	47372	953	32
1	47421	954	1
1	47466	955	1
1	47521	956	1
1	47568	957	1
1	47619	958	1
1	47684	959	1
1	47727	960	1
1	47764	961	16
1	47811	962	6
1	47868	963	6
1	47919	964	6
1	47966	965	16