version 2
run Sched1-5-20230103-12:15:48-11464
attr configname Sched1
attr datetime 20230103-12:15:48
attr experiment Sched1
attr inifile omnetpp.ini
attr iterationvars $networkLoad=1
attr iterationvarsf networkLoad=1-
attr measurement $networkLoad=1
attr network RadioSch
attr processid 11464
attr repetition 5
attr replication #5
attr resultdir results
attr runnumber 5
attr seedset 5
itervar networkLoad 1
param *.usersCount 3
param *.nrOfChannels 10
param *.cycleDuration "1 ms"
param *.networkLoad 1
param **.user[*].generator.sendIaTime "0.2 ms"

vector 0 RadioSch.sink lifetime:vector ETV
attr interpolationmode none
attr title "lifetime of arrived jobs, vector"
attr unit s
0	36	1	1
0	37	1	0.949796004462
0	38	1	0.90348041172
0	39	1	0.813051788785
0	40	1	0.311348993742
0	41	1	0.210268719248
0	42	1	0.122834821939
0	43	1	1
0	44	1	0.988647805276
0	45	1	0.632688139346
0	77	2	0.97669907336
0	78	2	0.843344268065
0	79	2	0.512998647898
0	80	2	0.170623888265
0	81	2	0.136155219733
0	82	2	0.855757950797
0	83	2	0.814175614763
0	84	2	0.797338082626
0	85	2	0.58768263073
0	86	2	0.319464090806
0	136	3	0.712207428524
0	137	3	0.563876330838
0	138	3	0.390453436379
0	139	3	0.207230687793
0	140	3	0.187628054174
0	141	3	1.203032264366
0	142	3	1.147475247187
0	143	3	0.858374538171
0	144	3	0.751407210908
0	145	3	0.330819198681
0	169	4	0.8372499698
0	170	4	0.801038413462
0	171	4	0.166956988187
0	172	4	0.147974223702
0	173	4	0.106221079531
0	174	4	1.269019228199
0	175	4	1.266081609306
0	176	4	1.199074907461
0	177	4	1.140579343181
0	178	4	1.061209692723
0	208	5	0.002482415422
0	209	5	0.002153711428
0	210	5	2.030074321803
0	211	5	1.584186912742
0	212	5	1.41938209529
0	213	5	0.774470096307
0	214	5	0.533779767076
0	215	5	5
0	216	5	4.59082602841
0	217	5	0.231395022976
0	244	6	0.767315439328
0	245	6	0.247538638074
0	246	6	0.027580562886
0	247	6	1.226754993939
0	248	6	1.06110474394
0	249	6	0.969280231465
0	250	6	0.824363969552
0	251	6	0.620147482425
0	252	6	5.456779212
0	253	6	5.437956405401
0	288	7	0.618791795383
0	289	7	0.618348461337
0	290	7	0.447020458777
0	291	7	0.273652968674
0	292	7	0.771702843481
0	293	7	0.533119392851
0	294	7	0.406336711844
0	295	7	0.393000410629
0	296	7	0.291186708259
0	297	7	6.248738404084
0	338	8	0.937538700941
0	339	8	0.64285943648
0	340	8	0.636950694943
0	341	8	0.091260776451
0	342	8	1.252167071434
0	343	8	1.168600694195
0	344	8	1.010467877072
0	345	8	0.822810406421
0	346	8	0.779309769921
0	347	8	6.958330307886
0	372	9	0.518132048103
0	373	9	0.446224250288
0	374	9	0.402809105049
0	375	9	1.646618857824
0	376	9	1.62069994877
0	377	9	1.546202975701
0	378	9	1.488334254765
0	379	9	1.475488076163
0	380	9	7.887907380344
0	381	9	6.94974145503
0	419	10	0.915295848801
0	420	10	0.89550789596
0	421	10	0.664957916133
0	422	10	0.575372596814
0	423	10	0.568141634163
0	424	10	0.401037495497
0	425	10	0.082970462759
0	426	10	1.805490062448
0	427	10	1.638510122082
0	428	10	1.54164007623
0	465	11	0.991993872432
0	466	11	0.785607496982
0	467	11	0.708807687243
0	468	11	0.083873496732
0	469	11	2.207481221178
0	470	11	1.940881478694
0	471	11	1.416593040423
0	472	11	1.36818402186
0	473	11	1.334018976353
0	474	11	8.926232169796
0	503	12	0.544467081733
0	504	12	0.17345697518
0	505	12	0.076747082902
0	506	12	2.292203455192
0	507	12	1.919266144711
0	508	12	1.602231726562
0	509	12	1.466219075158
0	510	12	1.023508780524
0	511	12	9.862167295952
0	512	12	9.816497191668
0	547	13	0.933932238766
0	548	13	0.840642470076
0	549	13	0.191274382432
0	550	13	1.448663905341
0	551	13	0.410547372286
0	552	13	0.385546298097
0	553	13	0.361989772189
0	554	13	0.272830805516
0	555	13	10.791136011882
0	556	13	10.720917917739
0	592	14	0.81187700914
0	593	14	0.105516522885
0	594	14	1.142683322853
0	595	14	0.828407709813
0	596	14	0.710228165583
0	597	14	0.387863596182
0	598	14	0.376885175738
0	599	14	11.522721577604
0	600	14	11.387213262332
0	601	14	0.27088905309
0	631	15	0.782222477396
0	632	15	0.771127948413
0	633	15	0.495442435531
0	634	15	0.374993515909
0	635	15	0.132227891918
0	636	15	0.051520054626
0	637	15	1.214328153546
0	638	15	0.932270957445
0	639	15	0.734769056871
0	640	15	0.692506847141
0	669	16	0.962267884912
0	670	16	0.453411538333
0	671	16	0.348667952884
0	672	16	0.293498629932
0	673	16	0.812936039144
0	674	16	0.198713337295
0	675	16	0.118542210872
0	676	16	0.08776822025
0	677	16	0.070495670752
0	678	16	13.123955774651
0	704	17	0.835819080455
0	705	17	0.68620649141
0	706	17	0.434465620612
0	707	17	0.407060665824
0	708	17	0.785166545808
0	709	17	0.568907297078
0	710	17	0.121951360667
0	711	17	13.765412495607
0	712	17	13.100950803871
0	713	17	13.096029435783
0	739	18	0.735676917238
0	740	18	0.488068221421
0	741	18	0.246235751491
0	742	18	0.185734488612
0	743	18	0.00410419637
0	744	18	0.936020243417
0	745	18	0.113967102362
0	746	18	13.966240991238
0	747	18	13.920470139531
0	748	18	13.689487187562
0	789	19	0.922806538478
0	790	19	0.829216745521
0	791	19	0.811875310048
0	792	19	0.604789780867
0	793	19	0.514404248375
0	794	19	0.316465884982
0	795	19	0.271791045836
0	796	19	0.259395502134
0	797	19	0.163477280162
0	798	19	0.01521463721
0	836	20	0.953844818914
0	837	20	0.887793997501
0	838	20	0.874693991271
0	839	20	0.59466847305
0	840	20	0.573153993756
0	841	20	0.535827809287
0	842	20	0.492359569629
0	843	20	0.149398486432
0	844	20	1.38132883626
0	845	20	1.048851549789
0	876	21	0.816951460562
0	877	21	0.32455477391
0	878	21	0.148795610002
0	879	21	0.076739864306
0	880	21	1.82383393393
0	881	21	1.768391143767
0	882	21	1.750609498147
0	883	21	1.730418816172
0	884	21	1.400598533184
0	885	21	16.318706678527
0	908	22	0.808359895755
0	909	22	0.802480142743
0	910	22	0.587060693674
0	911	22	0.41312271002
0	912	22	1.883487527718
0	913	22	1.705473099329
0	914	22	1.320444612232
0	915	22	1.151196494476
0	916	22	1.064826394328
0	917	22	17.127219105974
0	950	23	0.875297975696
0	951	23	0.747252237094
0	952	23	0.197342063355
0	953	23	1.715424236094
0	954	23	1.677443350681
0	955	23	1.648694923246
0	956	23	1.625951517064
0	957	23	0.841238623431
0	958	23	17.95482883006
0	959	23	17.61608258021
0	990	24	0.75159913332
0	991	24	0.643117262016
0	992	24	0.493309653511
0	993	24	1.596253288765
0	994	24	1.328991513679
0	995	24	0.888103677737
0	996	24	0.765108673359
0	997	24	0.745075214445
0	998	24	18.614932266308
0	999	24	18.554954992594
0	1033	25	0.843385194327
0	1034	25	0.795951657343
0	1035	25	0.610691453103
0	1036	25	0.328685621614
0	1037	25	0.279378164127
0	1038	25	1.718406105009
0	1039	25	1.51797888812
0	1040	25	1.471395878759
0	1041	25	1.381368454669
0	1042	25	0.802159340383
0	1080	26	0.972411055258
0	1081	26	0.862133747606
0	1082	26	0.619854076332
0	1083	26	0.157294449337
0	1084	26	0.141289466261
0	1085	26	0.079649847345
0	1086	26	0.050791753204
0	1087	26	0.01770524335
0	1088	26	1.690551233118
0	1089	26	1.414428481809
0	1123	27	0.988357576439
0	1124	27	0.91190034989
0	1125	27	0.833745567237
0	1126	27	0.594826957944
0	1127	27	0.430214692341
0	1128	27	0.271078486616
0	1129	27	0.144883588173
0	1130	27	2.171208215546
0	1131	27	2.060309363691
0	1132	27	1.668447682797
0	1176	28	0.749537367951
0	1177	28	0.736951856599
0	1178	28	0.545626401089
0	1179	28	0.359850313435
0	1180	28	0.059390718828
0	1181	28	0.04460413944
0	1182	28	2.59171289831
0	1183	28	2.500781927547
0	1184	28	2.370786874105
0	1185	28	2.085715782589
0	1235	29	0.918039111934
0	1236	29	0.546954032219
0	1237	29	0.139077578064
0	1238	29	0.108823186891
0	1239	29	0.093135040024
0	1240	29	3.064837252655
0	1241	29	2.999703992913
0	1242	29	2.976415568632
0	1243	29	2.749038882207
0	1244	29	1.571584206324
0	1273	30	0.644719127406
0	1274	30	0.452930975969
0	1275	30	0.310475131623
0	1276	30	0.273640519835
0	1277	30	2.362453467631
0	1278	30	2.238357483406
0	1279	30	2.199236883076
0	1280	30	2.125246988637
0	1281	30	1.954180893987
0	1282	30	24.299961762151
0	1310	31	0.951429419072
0	1311	31	0.421482223368
0	1312	31	2.868721811657
0	1313	31	2.832503310522
0	1314	31	2.631936299389
0	1315	31	2.546292292847
0	1316	31	2.367375527734
0	1317	31	24.975561575557
0	1318	31	24.9309915057
0	1319	31	2.235194970017
0	1351	32	0.888651120908
0	1352	32	0.612043460526
0	1353	32	0.326176748331
0	1354	32	0.114124728849
0	1355	32	0.071416940364
0	1356	32	0.021615855126
0	1357	32	0.017217956113
0	1358	32	3.039160027843
0	1359	32	2.776854908466
0	1360	32	2.63911627923
0	1396	33	0.912679148051
0	1397	33	0.912602553478
0	1398	33	0.864934374474
0	1399	33	0.491399072296
0	1400	33	0.479104142734
0	1401	33	0.304213101964
0	1402	33	0.12095837242
0	1403	33	3.432753391955
0	1404	33	3.23361733261
0	1405	33	3.028471660501
0	1430	34	0.469707812648
0	1431	34	0.198165855822
0	1432	34	0.126689140501
0	1433	34	3.141086140272
0	1434	34	3.028961232056
0	1435	34	2.780812352425
0	1436	34	2.379773923607
0	1437	34	2.045570626686
0	1438	34	27.418850841769
0	1439	34	26.621191601547
0	1474	35	0.635133775848
0	1475	35	0.61715982311
0	1476	35	0.595253037863
0	1477	35	0.541503572248
0	1478	35	0.537537566981
0	1479	35	0.422226766497
0	1480	35	0.365787381394
0	1481	35	0.338841907693
0	1482	35	0.332593212463
0	1483	35	0.2872050656
0	1511	36	1.249292218068
0	1512	36	0.880838144969
0	1513	36	0.831483607264
0	1514	36	0.457150493113
0	1515	36	0.387805460089
0	1516	36	0.086684093525
0	1517	36	4.011947215138
0	1518	36	3.79564193136
0	1519	36	3.732965842523
0	1520	36	3.697825352119
0	1552	37	0.836360026951
0	1553	37	4.380983842869
0	1554	37	4.086822434911
0	1555	37	3.949728933299
0	1556	37	3.854193248994
0	1557	37	3.71675611298
0	1558	37	29.603091597171
0	1559	37	29.579457867553
0	1560	37	3.634155831206
0	1561	37	3.348959730369
0	1594	38	0.694413531255
0	1595	38	0.245662101959
0	1596	38	0.203913509032
0	1597	38	3.200143723282
0	1598	38	2.848369856813
0	1599	38	2.419394860844
0	1600	38	2.218525343324
0	1601	38	2.085202055093
0	1602	38	30.450846649876
0	1603	38	30.386434980348
0	1629	39	0.556070380151
0	1630	39	0.276445234382
0	1631	39	2.782619741411
0	1632	39	2.748461826513
0	1633	39	2.502585773285
0	1634	39	1.815857352295
0	1635	39	1.705563919022
0	1636	39	31.186627617953
0	1637	39	31.135393938857
0	1638	39	1.645832467245
0	1700	40	0.626225360703
0	1701	40	0.405150275773
0	1702	40	0.301313484392
0	1703	40	0.262126242413
0	1704	40	0.242627230656
0	1705	40	0.124584022577
0	1706	40	2.576634461768
0	1707	40	2.277379303963
0	1708	40	2.224401345288
0	1709	40	1.302253264537
0	1751	41	0.950938401346
0	1752	41	0.877146149551
0	1753	41	0.631349963331
0	1754	41	0.380775052617
0	1755	41	0.281901416548
0	1756	41	0.06059422651
0	1757	41	2.088707669991
0	1758	41	2.015781070804
0	1759	41	1.929569223766
0	1760	41	1.629332040075
0	1796	42	0.94697816162
0	1797	42	0.427178958601
0	1798	42	0.425852951041
0	1799	42	0.370770919945
0	1800	42	0.257316209391
0	1801	42	0.08884022267
0	1802	42	0.003044060764
0	1803	42	2.614937774446
0	1804	42	2.57898235891
0	1805	42	2.544973239371
0	1836	43	0.915088153342
0	1837	43	0.73231476144
0	1838	43	0.684595339032
0	1839	43	3.498712215265
0	1840	43	3.418406322098
0	1841	43	3.40137543345
0	1842	43	3.286645224134
0	1843	43	2.953214887954
0	1844	43	34.796111138427
0	1845	43	34.701381201242
0	1892	44	0.382024469959
0	1893	44	0.255174630704
0	1894	44	0.105802873697
0	1895	44	0.038657672513
0	1896	44	3.887797852141
0	1897	44	3.872168675691
0	1898	44	3.86238558285
0	1899	44	3.717831459374
0	1900	44	3.319419891618
0	1901	44	35.499614341289
0	1930	45	0.48175101625
0	1931	45	0.452310932189
0	1932	45	0.191222447315
0	1933	45	4.290898359642
0	1934	45	4.284794243987
0	1935	45	4.193877945338
0	1936	45	3.705007788838
0	1937	45	3.105483533154
0	1938	45	35.977022821091
0	1939	45	35.628645169235
0	1966	46	0.448118709041
0	1967	46	0.298432042922
0	1968	46	0.007111734944
0	1969	46	4.057960541355
0	1970	46	4.011437912067
0	1971	46	3.99071282592
0	1972	46	3.841707359794
0	1973	46	3.578961729158
0	1974	46	36.518244205836
0	1975	46	36.360154662249
0	2004	47	0.987015338656
0	2005	47	0.854444947375
0	2006	47	0.761763773644
0	2007	47	0.273337600061
0	2008	47	4.571142464529
0	2009	47	4.291296383502
0	2010	47	3.960942281254
0	2011	47	3.922697769875
0	2012	47	3.918755171954
0	2013	47	37.349655268358
0	2036	48	0.835989673466
0	2037	48	0.792217171303
0	2038	48	0.648364129869
0	2039	48	0.359068061179
0	2040	48	4.770329190346
0	2041	48	4.619749863449
0	2042	48	4.549555208239
0	2043	48	4.485284159467
0	2044	48	3.779893217782
0	2045	48	37.988303995945
0	2081	49	0.907672528949
0	2082	49	0.892928116078
0	2083	49	0.794627692761
0	2084	49	0.51189458314
0	2085	49	0.416586348483
0	2086	49	0.016705999619
0	2087	49	4.761417364456
0	2088	49	4.507252425126
0	2089	49	4.187654710993
0	2090	49	4.071240399924
0	2123	50	0.957189859508
0	2124	50	0.566100253238
0	2125	50	0.009043141631
0	2126	50	5.059391284381
0	2127	50	4.750916350633
0	2128	50	4.495257003211
0	2129	50	4.283476312248
0	2130	50	4.212491776587
0	2131	50	39.932284250864
0	2132	50	39.903454569451
0	2160	51	0.876171357859
0	2161	51	0.67301396013
0	2162	51	0.589058137543
0	2163	51	0.313922505138
0	2164	51	0.301246342385
0	2165	51	0.188055513766
0	2166	51	0.04135894919
0	2167	51	0.003955170353
0	2168	51	4.878409611702
0	2169	51	4.857917501293
0	2208	52	0.884695119729
0	2209	52	0.548299099426
0	2210	52	0.458247072701
0	2211	52	0.288136229639
0	2212	52	5.716598136582
0	2213	52	5.282051028726
0	2214	52	5.232288995812
0	2215	52	4.955896152449
0	2216	52	4.627266538646
0	2217	52	41.864562192092
0	2249	53	0.836231944042
0	2250	53	0.378796045479
0	2251	53	5.475483971291
0	2252	53	5.261277003549
0	2253	53	4.519793212365
0	2254	53	4.276887855259
0	2255	53	4.185037953243
0	2256	53	42.777759971697
0	2257	53	42.574052262595
0	2258	53	4.035585811048
0	2288	54	0.241346291069
0	2289	54	4.958011384932
0	2290	54	4.82464815775
0	2291	54	4.467815430906
0	2292	54	4.110331561272
0	2293	54	3.783635633505
0	2294	54	43.522664314053
0	2295	54	43.347490674592
0	2296	54	3.587902111699
0	2297	54	3.461464034946
0	2341	55	0.885671012879
0	2342	55	0.805800497852
0	2343	55	0.797036878885
0	2344	55	0.781494752121
0	2345	55	0.444333224658
0	2346	55	0.40500710582
0	2347	55	0.078863402343
0	2348	55	3.880828819099
0	2349	55	3.809784229927
0	2350	55	3.771823831672
0	2379	56	0.697244798076
0	2380	56	0.599329613772
0	2381	56	0.128055834359
0	2382	56	4.688519515421
0	2383	56	4.487799536964
0	2384	56	4.156960525823
0	2385	56	4.12211126619
0	2386	56	3.94868269466
0	2387	56	44.78713049962
0	2388	56	44.769341298417
0	2428	57	0.48511871283
0	2429	57	0.401466908233
0	2430	57	4.839200118092
0	2431	57	4.614491084088
0	2432	57	4.437591967729
0	2433	57	4.224847827952
0	2434	57	4.198309971031
0	2435	57	45.745653853166
0	2436	57	45.412045012312
0	2437	57	4.196623994724
0	2465	58	0.907500970122
0	2466	58	0.751403781845
0	2467	58	0.615432209964
0	2468	58	0.070969691269
0	2469	58	0.038186127469
0	2470	58	4.913823814804
0	2471	58	4.769281417859
0	2472	58	4.736330215782
0	2473	58	4.452388447893
0	2474	58	4.094098479553
0	2511	59	0.983136497922
0	2512	59	0.888882924901
0	2513	59	0.512642854267
0	2514	59	5.092586800625
0	2515	59	5.008231637364
0	2516	59	4.912405952815
0	2517	59	4.73149145616
0	2518	59	4.662690722445
0	2519	59	47.327106818041
0	2520	59	47.240110585301
0	2566	60	0.988850788193
0	2567	60	0.918765856331
0	2568	60	0.826032351505
0	2569	60	0.76303434638
0	2570	60	0.758599150307
0	2571	60	0.736326208284
0	2572	60	0.326192890706
0	2573	60	5.618246719726
0	2574	60	5.501027401416
0	2575	60	5.495191384543
0	2614	61	0.815849766162
0	2615	61	0.779649642652
0	2616	61	0.765610939097
0	2617	61	0.655053132155
0	2618	61	0.541926498069
0	2619	61	0.355339355187
0	2620	61	0.245516549809
0	2621	61	0.160306375352
0	2622	61	0.098518440408
0	2623	61	0.02287261186
0	2652	62	0.657624523712
0	2653	62	0.58012432481
0	2654	62	0.406604742983
0	2655	62	0.403765102389
0	2656	62	6.873404122499
0	2657	62	6.160170722423
0	2658	62	6.112946728136
0	2659	62	5.676158738662
0	2660	62	5.664126819895
0	2661	62	50.218854559031
0	2700	63	0.660642633726
0	2701	63	0.536282627097
0	2702	63	0.101014217309
0	2703	63	6.576562477265
0	2704	63	6.572384364033
0	2705	63	6.53325592605
0	2706	63	6.523718989834
0	2707	63	6.473948369573
0	2708	63	51.086501484478
0	2709	63	50.81544146334
0	2748	64	0.996631064306
0	2749	64	0.950045601427
0	2750	64	0.222455940543
0	2751	64	7.085500209639
0	2752	64	7.027238140258
0	2753	64	7.003247552549
0	2754	64	6.961330344184
0	2755	64	6.392401880466
0	2756	64	51.808283381584
0	2757	64	51.715395515217
0	2794	65	0.824395764199
0	2795	65	0.546575317163
0	2796	65	0.242533407726
0	2797	65	0.141997684497
0	2798	65	7.049061998894
0	2799	65	6.997590733005
0	2800	65	6.952372941923
0	2801	65	6.502527544904
0	2802	65	6.419908237475
0	2803	65	52.682264129924
0	2849	66	0.938406790533
0	2850	66	0.707680931712
0	2851	66	0.53174397235
0	2852	66	0.308461140911
0	2853	66	0.307400804615
0	2854	66	0.214423006033
0	2855	66	0.072686713921
0	2856	66	7.186020232761
0	2857	66	7.146033114492
0	2858	66	7.027962397437
0	2884	67	0.927234547585
0	2885	67	0.814763576711
0	2886	67	0.671276027912
0	2887	67	0.521205770292
0	2888	67	0.429772387995
0	2889	67	7.799783966611
0	2890	67	7.596184393116
0	2891	67	7.559865681953
0	2892	67	7.470048474393
0	2893	67	7.308590222917
0	2921	68	0.853923134772
0	2922	68	0.823551774836
0	2923	68	0.764830134242
0	2924	68	0.286800531688
0	2925	68	0.181223908025
0	2926	68	0.035165651601
0	2927	68	8.034219229226
0	2928	68	7.806060295007
0	2929	68	7.790527441019
0	2930	68	7.618139226813
0	2959	69	0.859784762461
0	2960	69	0.420140913235
0	2961	69	0.40877048078
0	2962	69	0.079590054048
0	2963	69	8.615493792161
0	2964	69	8.178001011434
0	2965	69	8.130469614944
0	2966	69	7.39148989546
0	2967	69	7.13104789082
0	2968	69	56.67977482022
0	3004	70	0.97239141467
0	3005	70	0.857943864711
0	3006	70	0.629230153081
0	3007	70	0.348299663282
0	3008	70	0.347878248729
0	3009	70	0.345768388357
0	3010	70	0.116415250912
0	3011	70	0.03981277761
0	3012	70	8.122154445394
0	3013	70	8.060217015083
0	3041	71	0.991906389526
0	3042	71	0.897239596243
0	3043	71	0.647433716948
0	3044	71	0.603381893956
0	3045	71	0.568331641044
0	3046	71	0.277426175957
0	3047	71	0.198816058813
0	3048	71	0.152126475665
0	3049	71	0.011875009194
0	3050	71	8.91685607006
0	3086	72	0.658257879829
0	3087	72	0.587136022621
0	3088	72	0.569693046826
0	3089	72	0.563234912994
0	3090	72	0.517348475884
0	3091	72	0.235860644362
0	3092	72	0.187354131628
0	3093	72	0.071189732281
0	3094	72	9.501216875375
0	3095	72	9.466787097383
0	3135	73	0.858990630578
0	3136	73	0.765819245776
0	3137	73	0.72092689656
0	3138	73	0.633356436052
0	3139	73	0.381033611463
0	3140	73	0.027314244229
0	3141	73	10.427644652994
0	3142	73	10.408492941171
0	3143	73	10.380078738618
0	3144	73	10.082575247863
0	3170	74	0.993167124054
0	3171	74	10.868665433169
0	3172	74	10.82666988674
0	3173	74	10.460277521502
0	3174	74	10.350021976002
0	3175	74	9.816140657478
0	3176	74	61.602142626871
0	3177	74	61.209338341697
0	3178	74	9.479934532137
0	3179	74	9.182973509918
0	3204	75	0.959318414771
0	3205	75	0.707109304899
0	3206	75	0.321255501209
0	3207	75	0.226647053257
0	3208	75	9.90708141131
0	3209	75	9.757757355899
0	3210	75	9.455505621597
0	3211	75	9.353754360854
0	3212	75	9.328926674572
0	3213	75	61.970138505104
0	3236	76	0.604416089955
0	3237	76	0.482397601865
0	3238	76	0.010933148615
0	3239	76	10.325911631334
0	3240	76	10.215579966068
0	3241	76	9.861413877849
0	3242	76	9.592681898299
0	3243	76	9.332808618881
0	3244	76	62.825525253763
0	3245	76	62.70718758273
0	3291	77	0.796812598129
0	3292	77	0.604911275847
0	3293	77	0.585770146138
0	3294	77	0.585434110147
0	3295	77	0.426249374183
0	3296	77	0.313504700328
0	3297	77	0.233591514846
0	3298	77	0.191668792281
0	3299	77	9.739860740053
0	3300	77	9.605913008293
0	3341	78	0.987544709608
0	3342	78	0.967859032561
0	3343	78	0.727358468099
0	3344	78	0.636226357069
0	3345	78	0.607683991608
0	3346	78	0.480435223143
0	3347	78	0.431525007082
0	3348	78	0.396346703986
0	3349	78	0.185655728717
0	3350	78	0.073456024986
0	3380	79	1.055081966744
0	3381	79	0.625663615652
0	3382	79	0.589116077796
0	3383	79	0.287185317477
0	3384	79	0.051097634215
0	3385	79	11.478549917615
0	3386	79	11.43181432056
0	3387	79	10.801335306647
0	3388	79	10.572890983201
0	3389	79	10.514924359834
0	3416	80	0.769900554577
0	3417	80	0.653469536118
0	3418	80	0.120359664225
0	3419	80	11.350830324342
0	3420	80	10.737324683893
0	3421	80	10.447021070355
0	3422	80	10.220471284907
0	3423	80	10.139376451203
0	3424	80	66.564226160066
0	3425	80	66.560105729285
0	3457	81	0.47465066615
0	3458	81	0.277947239906
0	3459	81	10.356759270092
0	3460	81	9.615271871729
0	3461	81	9.608703520655
0	3462	81	9.183472342975
0	3463	81	9.092051088216
0	3464	81	67.426960817473
0	3465	81	67.256945102748
0	3466	81	9.090344017576
0	3510	82	0.822485682457
0	3511	82	0.612099628315
0	3512	82	0.499550113083
0	3513	82	0.459656806816
0	3514	82	0.454090353642
0	3515	82	0.382167956772
0	3516	82	0.293034617258
0	3517	82	0.182990293031
0	3518	82	0.144630133531
0	3519	82	10.056018086558
0	3553	83	0.852335515109
0	3554	83	0.718018797854
0	3555	83	0.610171720395
0	3556	83	0.153490420684
0	3557	83	0.086397395017
0	3558	83	10.726557908869
0	3559	83	10.66655406646
0	3560	83	10.644889188106
0	3561	83	10.553874772235
0	3562	83	10.491610130779
0	3591	84	0.986013001048
0	3592	84	0.39247622107
0	3593	84	0.304971919482
0	3594	84	0.074892009059
0	3595	84	11.394323053243
0	3596	84	11.118967001737
0	3597	84	10.821644167889
0	3598	84	10.66412426891
0	3599	84	10.647512039515
0	3600	84	69.415171800541
0	3640	85	0.683095197631
0	3641	85	0.025199360596
0	3642	85	11.381211034184
0	3643	85	11.360491621087
0	3644	85	11.27727298576
0	3645	85	11.164155981524
0	3646	85	10.973509222342
0	3647	85	70.236883024779
0	3648	85	70.095686860704
0	3649	85	10.719057017487
0	3679	86	0.803189086118
0	3680	86	0.800516228246
0	3681	86	0.609772254156
0	3682	86	0.561914588132
0	3683	86	0.189159043478
0	3684	86	11.551057423222
0	3685	86	11.535021210079
0	3686	86	10.665519654823
0	3687	86	10.064156223277
0	3688	86	9.51585732056
0	3739	87	0.915403804624
0	3740	87	0.752592382762
0	3741	87	0.73830916754
0	3742	87	0.696334703493
0	3743	87	0.605847666168
0	3744	87	0.57721334421
0	3745	87	0.326451193931
0	3746	87	0.279212801108
0	3747	87	0.200412400844
0	3748	87	0.19980132013
0	3787	88	1.131514381705
0	3788	88	1.06677008615
0	3789	88	1.021651791534
0	3790	88	0.796723529279
0	3791	88	0.781296556482
0	3792	88	0.770232929114
0	3793	88	0.70350107324
0	3794	88	0.550883264141
0	3795	88	0.460016624304
0	3796	88	0.447108993986
0	3826	89	1.446212301147
0	3827	89	1.44494255296
0	3828	89	1.387174089683
0	3829	89	1.197366785101
0	3830	89	0.626939180061
0	3831	89	0.57563931362
0	3832	89	0.447594631024
0	3833	89	0.386608479904
0	3834	89	12.498719578026
0	3835	89	11.869170877178
0	3867	90	0.884188917703
0	3868	90	0.530525796034
0	3869	90	0.31869120632
0	3870	90	0.244041021222
0	3871	90	0.186374776977
0	3872	90	0.03579733496
0	3873	90	12.792576212412
0	3874	90	12.158835003232
0	3875	90	12.030514543185
0	3876	90	11.969710049198
0	3922	91	0.95093774955
0	3923	91	0.755293535087
0	3924	91	0.647767903527
0	3925	91	0.154713051272
0	3926	91	0.115866295653
0	3927	91	12.416890234652
0	3928	91	12.413939819319
0	3929	91	11.616713590318
0	3930	91	11.177056950594
0	3931	91	11.136092670755
0	3974	92	0.709165073499
0	3975	92	0.474664681671
0	3976	92	0.167609513015
0	3977	92	0.038468913518
0	3978	92	11.801259242372
0	3979	92	11.494699980621
0	3980	92	11.44179845739
0	3981	92	11.440855614384
0	3982	92	11.354150709935
0	3983	92	77.046690073634
0	4016	93	0.739214864127
0	4017	93	0.085661134795
0	4018	93	0.037633605254
0	4019	93	12.331706828659
0	4020	93	12.091497474578
0	4021	93	11.91607836874
0	4022	93	11.89015486224
0	4023	93	11.275411692833
0	4024	93	77.875992387021
0	4025	93	77.571418420039
0	4059	94	0.844441548241
0	4060	94	0.747223966756
0	4061	94	0.66705838824
0	4062	94	0.491007740692
0	4063	94	0.121277718759
0	4064	94	0.047392734349
0	4065	94	12.111550545373
0	4066	94	12.102971502099
0	4067	94	12.019759551067
0	4068	94	11.818135425216
0	4100	95	0.578426916111
0	4101	95	0.303994099238
0	4102	95	0.297916111399
0	4103	95	0.187480377494
0	4104	95	0.045722003477
0	4105	95	12.764033238274
0	4106	95	12.52323840627
0	4107	95	12.452506756776
0	4108	95	12.296862852617
0	4109	95	11.932439128517
0	4134	96	0.757412099636
0	4135	96	0.711542702048
0	4136	96	0.033200114461
0	4137	96	12.359161129003
0	4138	96	11.99207109986
0	4139	96	11.695516636827
0	4140	96	11.688264518463
0	4141	96	11.566466336224
0	4142	96	80.216773344992
0	4143	96	79.830619149106
0	4185	97	0.999116776679
0	4186	97	0.178752304577
0	4187	97	12.543942944759
0	4188	97	12.337740832557
0	4189	97	11.807217799934
0	4190	97	11.336734511003
0	4191	97	11.334216997264
0	4192	97	80.28837787145
0	4193	97	80.262283684364
0	4194	97	11.228478063423
0	4227	98	0.791031847341
0	4228	98	0.713044273393
0	4229	98	0.236856225251
0	4230	98	12.075901992525
0	4231	98	11.993658551436
0	4232	98	11.677975962323
0	4233	98	11.381347507387
0	4234	98	11.154942984979
0	4235	98	80.968407026731
0	4236	98	80.683733087669
0	4272	99	0.701671892279
0	4273	99	0.577581374204
0	4274	99	0.060462174381
0	4275	99	0.042721777131
0	4276	99	0.014662601295
0	4277	99	12.149310044792
0	4278	99	12.043891120123
0	4279	99	11.868756471302
0	4280	99	10.858123132103
0	4281	99	10.837666256375
0	4309	100	0.111329489646
0	4310	100	0.101511224819
0	4311	100	11.630457694543
0	4312	100	11.281126298659
0	4313	100	11.029867196549
0	4314	100	10.892575248808
0	4315	100	10.791553959133
0	4316	100	82.214055137448
0	4317	100	81.922427125407
0	4318	100	10.6354497197
0	4362	101	0.773005699913
0	4363	101	0.701975788404
0	4364	101	0.490215620016
0	4365	101	0.34125618166
0	4366	101	0.033819586492
0	4367	101	11.478463692916
0	4368	101	11.423617882855
0	4369	101	11.388040141951
0	4370	101	11.306851406224
0	4371	101	10.912869322851
0	4413	102	0.552116810789
0	4414	102	0.167414364264
0	4415	102	11.880832747542
0	4416	102	11.808796653766
0	4417	102	11.801610155914
0	4418	102	11.711137506575
0	4419	102	11.565701766279
0	4420	102	83.804488175684
0	4421	102	83.74969540489
0	4422	102	11.480567808043
0	4486	103	0.89422202331
0	4487	103	0.83097081516
0	4488	103	0.802936883175
0	4489	103	0.63380398238
0	4490	103	0.305686624113
0	4491	103	0.001513422251
0	4492	103	12.091184404389
0	4493	103	12.089183088823
0	4494	103	11.872331262857
0	4495	103	11.801499845033
0	4528	104	0.851335177948
0	4529	104	0.645450550227
0	4530	104	0.444376569882
0	4531	104	12.70539760749
0	4532	104	12.128243040369
0	4533	104	11.855932498549
0	4534	104	11.753301971234
0	4535	104	11.502416470288
0	4536	104	85.666084387429
0	4537	104	85.616011558739
0	4568	105	0.849668254637
0	4569	105	0.719143600622
0	4570	105	0.440644214029
0	4571	105	0.321126226645
0	4572	105	12.317639048867
0	4573	105	12.238603591203
0	4574	105	12.090144667106
0	4575	105	11.906482554851
0	4576	105	11.888443378026
0	4577	105	86.244252145065
0	4605	106	0.932728264506
0	4606	106	0.912749715895
0	4607	106	0.54118192564
0	4608	106	0.458348240654
0	4609	106	0.458113511422
0	4610	106	0.086383865467
0	4611	106	12.432576800106
0	4612	106	12.32625206711
0	4613	106	12.096324585124
0	4614	106	11.824369687109
0	4654	107	0.850588158557
0	4655	107	0.819031432204
0	4656	107	0.793435715701
0	4657	107	0.54987116163
0	4658	107	0.464389757653
0	4659	107	0.41024730734
0	4660	107	0.306249670068
0	4661	107	12.678566224125
0	4662	107	12.579827044731
0	4663	107	11.656672377668
0	4700	108	0.917320904068
0	4701	108	0.868235038281
0	4702	108	0.838680073152
0	4703	108	0.286823954297
0	4704	108	12.637265276395
0	4705	108	12.448800522079
0	4706	108	12.440298498375
0	4707	108	12.141541755698
0	4708	108	11.995951301696
0	4709	108	89.124777975088
0	4751	109	0.803580597461
0	4752	109	0.579982739939
0	4753	109	0.462087694718
0	4754	109	0.366077916224
0	4755	109	0.212893922203
0	4756	109	0.101759298883
0	4757	109	0.085063035254
0	4758	109	0.032095042564
0	4759	109	12.829322747909
0	4760	109	12.800762608408
0	4802	110	0.875281491092
0	4803	110	0.832834297088
0	4804	110	0.812376355379
0	4805	110	0.672669548814
0	4806	110	0.58472830187
0	4807	110	0.16368351109
0	4808	110	13.775990957588
0	4809	110	13.757010421216
0	4810	110	13.466631279433
0	4811	110	13.275358439187
0	4847	111	0.343513920743
0	4848	111	0.015142296067
0	4849	111	13.932390378403
0	4850	111	13.773575767042
0	4851	111	13.71044565311
0	4852	111	13.588188841257
0	4853	111	12.84090910467
0	4854	111	91.789266175028
0	4855	111	91.547428749118
0	4856	111	12.754934957069
0	4885	112	0.566986403831
0	4886	112	0.27748256491
0	4887	112	0.239286806873
0	4888	112	13.739891362358
0	4889	112	13.618407314829
0	4890	112	13.440507453781
0	4891	112	13.034125428482
0	4892	112	12.595261230518
0	4893	112	92.463118527329
0	4894	112	92.126025283289
0	4916	113	0.486903928846
0	4917	113	13.531328591133
0	4918	113	12.994774200488
0	4919	113	12.803058054566
0	4920	113	12.757862066519
0	4921	113	12.694492267972
0	4922	113	92.842135887838
0	4923	113	92.419608046784
0	4924	113	12.639540679654
0	4925	113	12.417910643016
0	4963	114	0.872869738533